/*--------------------------------*- C++ -*----------------------------------*\
| =========                 |                                                 |
| \\      /  F ield         | OpenFOAM: The Open Source CFD Toolbox           |
|  \\    /   O peration     | Version:  dev                                   |
|   \\  /    A nd           | Web:      www.OpenFOAM.org                      |
|    \\/     M anipulation  |                                                 |
\*---------------------------------------------------------------------------*/
FoamFile
{
    version     2.0;
    format      ascii;
    class       surfaceScalarField;
    location    "0.005";
    object      phi;
}
// * * * * * * * * * * * * * * * * * * * * * * * * * * * * * * * * * * * * * //

dimensions      [1 0 -1 0 0 0 0];

internalField   nonuniform List<scalar> 
999
(
-3.84249e-12
-4.15048e-12
-4.56523e-12
-4.47861e-12
-4.38969e-12
-4.53736e-12
-4.28753e-12
-3.77031e-12
-3.75275e-12
-4.3555e-12
-4.12321e-12
-4.7788e-12
-5.00208e-12
-4.87656e-12
-5.36485e-12
-5.49817e-12
-5.06343e-12
-4.71934e-12
-5.22869e-12
-5.2821e-12
-5.20153e-12
-4.95855e-12
-4.63557e-12
-4.20551e-12
-4.09997e-12
-4.1027e-12
-3.66421e-12
-3.38692e-12
-3.40315e-12
-3.28023e-12
-2.93965e-12
-3.10217e-12
-3.96796e-12
-3.51058e-12
-4.53703e-12
-5.36212e-12
-5.4393e-12
-5.40625e-12
-5.86755e-12
-6.07025e-12
-6.41376e-12
-6.97346e-12
-6.93396e-12
-5.93213e-12
-5.16099e-12
-4.47527e-12
-3.89298e-12
-3.63252e-12
-2.96784e-12
-3.13722e-12
-2.41408e-12
-2.28084e-12
-2.55679e-12
-1.90515e-12
-1.68236e-12
-1.68394e-12
-9.44953e-13
-1.4339e-12
-2.53393e-12
-2.46181e-12
-2.46389e-12
-3.8709e-12
-4.4355e-12
-4.83154e-12
-5.12329e-12
-5.4027e-12
-5.56407e-12
-5.39212e-12
-5.89269e-12
-5.89198e-12
-6.494e-12
-5.46855e-12
-5.73853e-12
-5.12434e-12
-4.82452e-12
-4.13651e-12
-4.2549e-12
-4.29871e-12
-3.19164e-12
-3.39597e-12
-3.50578e-12
-4.50987e-12
-3.67857e-12
-3.9879e-12
-4.66932e-12
-3.96089e-12
-3.52407e-12
-3.56034e-12
-3.94846e-12
-4.79789e-12
-4.06976e-12
-4.32166e-12
-4.33879e-12
-4.65093e-12
-4.65354e-12
-4.76281e-12
-5.03286e-12
-5.02269e-12
-5.13638e-12
-4.6914e-12
-4.4015e-12
-4.46518e-12
-4.44909e-12
-4.8959e-12
-4.65997e-12
-4.47036e-12
-4.8153e-12
-4.60881e-12
-4.97906e-12
-4.20923e-12
-4.35815e-12
-4.38031e-12
-4.57887e-12
-4.62808e-12
-4.06368e-12
-4.4641e-12
-4.77028e-12
-5.55446e-12
-5.90894e-12
-6.35369e-12
-7.52703e-12
-7.8839e-12
-8.25489e-12
-8.45943e-12
-9.11261e-12
-8.84896e-12
-8.56186e-12
-8.04364e-12
-8.66512e-12
-8.73762e-12
-8.19834e-12
-8.51971e-12
-9.21708e-12
-8.98917e-12
-8.4599e-12
-7.80388e-12
-7.87658e-12
-7.09704e-12
-7.95748e-12
-7.87e-12
-6.98998e-12
-6.19622e-12
-5.95723e-12
-6.04851e-12
-5.36386e-12
-6.06207e-12
-6.11123e-12
-6.32524e-12
-6.47404e-12
-5.69484e-12
-5.9215e-12
-6.43315e-12
-6.82357e-12
-6.65576e-12
-6.30888e-12
-6.8712e-12
-6.97721e-12
-6.37165e-12
-6.54354e-12
-6.93048e-12
-6.77229e-12
-6.98715e-12
-6.86057e-12
-7.32238e-12
-6.98852e-12
-6.95568e-12
-6.26044e-12
-5.84639e-12
-4.71313e-12
-4.17253e-12
-4.24546e-12
-3.21434e-12
-2.4824e-12
-1.80759e-12
-1.42399e-12
-1.4194e-12
-1.59335e-12
-1.404e-12
-2.09768e-12
-2.41296e-12
-3.28755e-12
-4.04896e-12
-4.04623e-12
-4.90728e-12
-5.23291e-12
-4.41161e-12
-4.7205e-12
-5.07694e-12
-4.87789e-12
-5.8003e-12
-5.60756e-12
-6.25754e-12
-6.40834e-12
-7.3106e-12
-7.38419e-12
-7.70145e-12
-7.27871e-12
-7.776e-12
-7.63242e-12
-8.15176e-12
-7.72704e-12
-7.65482e-12
-7.4922e-12
-7.48407e-12
-6.76417e-12
-6.43844e-12
-6.53249e-12
-6.35923e-12
-6.28069e-12
-4.91596e-12
-5.29489e-12
-4.97652e-12
-4.80734e-12
-4.72608e-12
-4.66581e-12
-4.25252e-12
-5.60753e-12
-5.72066e-12
-5.72431e-12
-6.37085e-12
-5.50912e-12
-5.83527e-12
-6.81994e-12
-7.08064e-12
-6.21205e-12
-7.24045e-12
-7.28141e-12
-7.48457e-12
-6.86298e-12
-7.26382e-12
-7.15006e-12
-6.13099e-12
-4.29139e-12
-2.24558e-12
2.25746e-12
9.27233e-12
2.26507e-11
4.65169e-11
8.95321e-11
1.66177e-10
3.05835e-10
5.54324e-10
9.97071e-10
1.78023e-09
3.15893e-09
5.57302e-09
9.77934e-09
1.70644e-08
2.96163e-08
5.11189e-08
8.77501e-08
1.49798e-07
2.54293e-07
4.29251e-07
7.2046e-07
1.20229e-06
1.99469e-06
3.28995e-06
5.39412e-06
8.79106e-06
1.42404e-05
2.29263e-05
3.66815e-05
5.83216e-05
9.21407e-05
0.000144637
0.00022557
0.000349481
0.000537862
0.000822219
0.00124835
0.00188227
0.0028183
0.00418995
0.00618459
0.00906253
0.0131821
0.0190315
0.027269
0.0387732
0.0547033
0.0765719
0.106329
0.14646
0.200087
0.271088
0.364208
0.485171
0.640776
0.838975
1.08891
1.40091
1.78643
2.25792
2.82862
3.51233
4.32305
5.27459
6.38023
7.65223
9.1015
10.7372
12.5665
14.5943
16.8232
19.2536
21.8835
24.7086
27.7232
30.9195
34.2885
37.8203
41.5041
45.3287
49.2826
53.3544
57.533
61.8074
66.1673
70.6026
75.1039
79.6627
84.2705
88.92
93.6041
98.3163
103.051
107.803
112.566
117.338
122.113
126.888
131.659
136.424
141.18
145.924
150.653
155.367
160.063
164.739
169.393
174.025
178.632
183.214
187.769
192.296
196.795
201.265
205.704
210.111
214.487
218.831
223.141
227.418
231.661
235.869
240.042
244.18
248.282
252.348
256.377
260.37
264.327
268.246
272.129
275.974
279.781
283.551
287.284
290.979
294.636
298.256
301.838
305.382
308.889
312.358
315.789
319.183
322.539
325.857
329.139
332.383
335.589
338.759
341.892
344.988
348.047
351.069
354.055
357.004
359.918
362.795
365.636
368.441
371.211
373.945
376.644
379.308
381.936
384.53
387.089
389.613
392.104
394.56
396.982
399.37
401.725
404.044
406.335
408.585
410.814
412.991
415.164
417.268
419.382
421.421
423.463
425.458
427.407
429.373
431.233
433.146
434.959
436.776
438.569
440.298
442.033
443.722
445.373
447.015
448.613
450.181
451.732
453.245
454.729
456.191
457.622
459.022
460.398
461.747
463.064
464.357
465.624
466.862
468.073
469.259
470.419
471.551
472.658
473.739
474.795
475.824
476.829
477.809
478.763
479.692
480.598
481.478
482.334
483.166
483.974
484.759
485.519
486.256
486.969
487.66
488.327
488.971
489.593
490.192
490.768
491.323
491.855
492.365
492.853
493.32
493.766
494.19
494.593
494.976
495.338
495.679
496.001
496.302
496.584
496.847
497.092
497.317
497.525
497.715
497.889
498.045
498.186
498.312
498.423
498.521
498.606
498.679
498.741
498.792
498.835
498.869
498.896
498.916
498.931
498.941
498.948
498.951
498.952
498.951
498.949
498.946
498.942
498.937
498.933
498.928
498.923
498.918
498.913
498.909
498.904
498.899
498.894
498.889
498.884
498.879
498.874
498.869
498.863
498.858
498.852
498.847
498.841
498.835
498.829
498.823
498.816
498.81
498.803
498.797
498.79
498.783
498.776
498.769
498.762
498.754
498.747
498.739
498.731
498.723
498.715
498.707
498.698
498.689
498.68
498.671
498.662
498.653
498.643
498.633
498.623
498.613
498.602
498.591
498.58
498.569
498.557
498.545
498.533
498.52
498.507
498.494
498.48
498.466
498.452
498.437
498.422
498.407
498.39
498.374
498.357
498.34
498.321
498.303
498.283
498.264
498.243
498.222
498.2
498.177
498.154
498.13
498.104
498.078
498.051
498.023
497.993
497.963
497.931
497.898
497.862
497.827
497.788
497.749
497.707
497.663
497.616
497.569
497.516
497.463
497.404
497.345
497.279
497.211
497.136
497.059
496.973
496.883
496.782
496.678
496.561
496.441
496.308
496.175
496.033
495.886
495.755
495.636
495.517
495.324
494.967
494.182
492.798
490.631
487.511
483.293
477.882
471.245
463.419
454.508
444.678
434.148
423.167
411.997
400.895
390.098
379.809
370.192
361.362
353.393
346.318
340.131
334.801
330.275
326.484
323.35
320.792
318.732
317.093
315.806
314.806
314.039
313.458
313.022
312.699
312.462
312.29
312.166
312.077
312.015
311.97
311.938
311.915
311.899
311.887
311.877
311.87
311.864
311.859
311.855
311.851
311.847
311.844
311.841
311.839
311.836
311.834
311.832
311.83
311.829
311.827
311.826
311.825
311.824
311.822
311.821
311.82
311.819
311.818
311.817
311.817
311.816
311.815
311.814
311.813
311.812
311.812
311.811
311.81
311.81
311.809
311.809
311.808
311.807
311.807
311.806
311.805
311.804
311.803
311.802
311.801
311.8
311.799
311.798
311.797
311.797
311.796
311.795
311.794
311.794
311.793
311.792
311.791
311.79
311.788
311.787
311.786
311.784
311.783
311.782
311.781
311.78
311.779
311.777
311.776
311.775
311.774
311.773
311.772
311.771
311.77
311.769
311.767
311.765
311.762
311.759
311.757
311.754
311.752
311.748
311.743
311.732
311.713
311.682
311.639
311.549
311.441
311.212
310.863
310.177
308.496
305.075
296.786
277.164
234.995
166.853
93.3665
39.6614
12.9908
3.56286
0.906551
0.225972
0.0560972
0.0139182
0.00345318
0.000856774
0.000212578
5.27438e-05
1.30865e-05
3.24697e-06
8.05625e-07
1.99888e-07
4.95959e-08
1.2306e-08
3.05366e-09
7.58008e-10
1.88374e-10
4.70251e-11
1.19515e-11
3.16036e-12
9.86141e-13
5.00391e-13
4.19227e-13
4.56281e-13
3.72061e-13
4.15546e-13
4.57517e-13
4.58528e-13
5.21352e-13
3.77846e-13
4.6258e-13
4.73109e-13
5.42599e-13
4.9571e-13
5.19215e-13
4.98838e-13
4.75617e-13
6.48685e-13
6.80199e-13
6.61672e-13
6.88867e-13
6.34426e-13
6.65814e-13
6.13154e-13
5.8243e-13
5.75658e-13
5.08349e-13
4.11914e-13
3.20194e-13
2.89143e-13
2.85202e-13
2.8571e-13
2.69764e-13
1.8484e-13
1.85766e-13
1.87257e-13
2.52399e-13
2.15946e-13
2.59265e-13
2.03262e-13
1.25525e-13
1.76664e-13
2.54479e-13
2.21654e-13
2.04287e-13
2.86884e-13
3.08707e-13
2.31799e-13
2.16995e-13
2.13066e-13
1.55873e-13
1.41492e-13
1.98791e-13
2.98089e-13
3.07026e-13
2.05474e-13
1.72193e-13
1.63768e-13
1.42889e-13
1.42568e-13
1.13407e-13
7.77095e-14
1.61581e-13
6.61314e-14
1.06127e-13
9.02016e-14
-7.52018e-14
-5.45517e-14
-9.19841e-14
-1.13203e-13
-1.91095e-13
-2.34243e-13
-1.79216e-13
-9.91509e-14
-8.52117e-14
-1.41849e-13
-1.54321e-13
-1.16429e-13
-5.80251e-14
2.8142e-14
5.086e-14
8.00132e-14
1.39826e-13
1.64376e-13
2.08577e-13
2.30869e-13
2.89495e-13
2.83791e-13
2.05368e-13
3.48925e-13
3.39005e-13
2.5237e-13
1.89985e-13
1.66934e-13
1.34373e-13
9.94108e-14
4.57969e-14
3.15861e-14
1.15693e-13
1.3521e-13
8.72677e-14
3.50142e-15
-5.7888e-14
3.90286e-14
-6.01685e-15
1.70381e-14
-1.46905e-14
5.55311e-14
1.09133e-13
1.49194e-13
1.70177e-13
1.17571e-13
1.90193e-13
1.90023e-13
2.13581e-13
1.96071e-13
2.00167e-13
2.69368e-13
3.21418e-13
3.36438e-13
3.63826e-13
4.11651e-13
3.99683e-13
4.7562e-13
4.40264e-13
4.50505e-13
4.86374e-13
5.00876e-13
4.37984e-13
4.46528e-13
4.98752e-13
5.11704e-13
5.82316e-13
6.35072e-13
6.63999e-13
7.49325e-13
7.86758e-13
8.01792e-13
7.58818e-13
7.10101e-13
6.68139e-13
6.46525e-13
6.571e-13
5.86345e-13
6.02909e-13
5.07129e-13
5.10144e-13
4.83624e-13
4.00888e-13
3.92215e-13
4.55531e-13
5.28144e-13
5.33336e-13
6.02773e-13
5.56948e-13
5.36744e-13
5.73443e-13
5.33104e-13
4.61421e-13
5.36847e-13
4.71245e-13
5.19732e-13
5.79854e-13
4.99341e-13
5.56688e-13
4.64326e-13
4.7562e-13
3.51142e-13
4.36757e-13
4.79439e-13
4.64292e-13
4.08672e-13
4.59917e-13
4.16804e-13
4.59608e-13
4.55468e-13
5.91698e-13
6.65159e-13
6.56486e-13
6.22348e-13
5.91528e-13
4.64304e-13
4.41124e-13
4.64899e-13
4.44374e-13
4.83537e-13
3.99836e-13
4.97077e-13
5.61742e-13
6.0258e-13
6.37651e-13
6.08888e-13
6.5707e-13
6.91301e-13
6.39527e-13
5.45759e-13
6.37366e-13
5.66986e-13
5.27545e-13
)
;

boundaryField
{
    sides
    {
        type            calculated;
        value           nonuniform List<scalar> 2(5.52973e-13 3.20142e-12);
    }
    empty
    {
        type            empty;
        value           nonuniform 0();
    }
}


// ************************************************************************* //
