/*--------------------------------*- C++ -*----------------------------------*\
| =========                 |                                                 |
| \\      /  F ield         | OpenFOAM: The Open Source CFD Toolbox           |
|  \\    /   O peration     | Version:  dev                                   |
|   \\  /    A nd           | Web:      www.OpenFOAM.org                      |
|    \\/     M anipulation  |                                                 |
\*---------------------------------------------------------------------------*/
FoamFile
{
    version     2.0;
    format      ascii;
    class       surfaceScalarField;
    location    "0.001";
    object      phi;
}
// * * * * * * * * * * * * * * * * * * * * * * * * * * * * * * * * * * * * * //

dimensions      [1 0 -1 0 0 0 0];

internalField   nonuniform List<scalar> 
999
(
-4.58627e-13
-6.81199e-13
-7.78903e-13
-5.45295e-13
-6.33677e-13
-6.56322e-13
-5.66148e-13
-2.54553e-13
4.49008e-13
1.17764e-13
7.42547e-13
1.0887e-13
5.57947e-13
8.24321e-13
3.03622e-13
-1.22101e-13
-6.53058e-13
-9.08184e-13
-5.90263e-13
5.37376e-13
5.94874e-13
2.25285e-13
5.13595e-13
3.95602e-13
1.14113e-13
1.70957e-13
-7.99301e-14
-6.12893e-13
-2.80353e-13
-5.70736e-13
-5.91454e-14
2.88295e-13
2.55673e-13
3.01336e-13
5.39891e-13
7.89413e-13
5.0656e-13
1.08656e-13
2.88081e-13
-7.7589e-15
1.12307e-13
1.03855e-13
-1.7191e-13
5.39182e-13
-2.55917e-13
-1.47246e-13
5.45415e-14
-2.3104e-13
-8.32095e-13
-6.70605e-13
-1.2943e-12
-1.63078e-12
-1.18879e-12
-6.54462e-13
-5.42635e-13
-6.86214e-13
-8.80044e-13
-5.73183e-13
-5.572e-13
-7.18127e-13
-6.00629e-13
-5.76193e-13
3.66136e-13
4.84411e-13
3.33302e-13
-2.34424e-13
-8.21074e-13
-7.8e-13
-9.69829e-13
-4.70196e-13
-9.08252e-13
-6.86762e-13
1.82901e-13
6.1931e-13
6.22039e-13
3.64772e-13
6.84834e-13
5.30287e-13
1.02589e-12
-5.27749e-13
-3.26175e-13
-2.63166e-13
-3.53339e-13
-7.21351e-13
-2.60437e-13
2.00194e-13
-2.08182e-13
-1.25606e-14
-3.21869e-13
1.74608e-13
3.13881e-13
1.00913e-13
-3.75702e-13
-5.25234e-13
1.12307e-13
1.31019e-13
5.1861e-13
8.57811e-13
6.5014e-13
4.54237e-13
4.41798e-13
2.78036e-13
-2.01976e-14
-6.5703e-13
-1.55645e-13
-1.92306e-13
9.75819e-14
-5.35278e-14
-3.54704e-13
-1.57825e-13
-4.54374e-13
-4.14489e-13
-4.66317e-13
-1.43206e-13
-3.25961e-13
5.91932e-13
4.4426e-13
9.33702e-13
6.53296e-13
1.04307e-12
1.77046e-12
1.24191e-12
9.97366e-13
9.74227e-13
7.27821e-13
2.15362e-13
4.52445e-13
2.44104e-13
-1.31156e-13
-1.20295e-13
-1.89791e-13
-3.91578e-13
-4.48917e-13
-3.49247e-13
-2.68783e-13
-7.11427e-13
1.62985e-13
1.97679e-13
4.58063e-13
1.66769e-14
-2.40803e-13
-2.38502e-13
-6.88448e-13
-8.60837e-13
-1.74691e-14
2.21193e-13
4.3455e-13
1.12307e-13
5.0656e-13
5.7175e-13
-1.88334e-14
-1.51552e-13
-5.36308e-13
-6.76946e-13
-9.27444e-13
-1.56559e-12
-1.22159e-12
-9.06606e-13
-8.33673e-13
-4.10571e-13
-7.44475e-13
-5.53762e-13
-3.15489e-13
4.04162e-13
3.32151e-13
-3.57432e-13
-6.74698e-13
-6.96633e-13
-8.42072e-13
-6.59545e-13
1.83114e-13
-5.96401e-14
-4.48703e-13
-4.26767e-13
-1.41192e-12
-1.30226e-12
-1.22258e-12
-6.29866e-13
-1.68084e-13
-2.38075e-13
-6.77159e-13
-1.09819e-12
-6.61351e-13
-5.87534e-13
3.501e-13
4.49877e-13
1.53435e-13
5.43207e-13
8.09756e-13
-1.13541e-13
-4.72014e-14
-6.44418e-14
3.65268e-13
1.03199e-13
2.07176e-13
2.93699e-13
-3.47096e-14
-2.21771e-13
1.17925e-13
1.07666e-13
3.11527e-13
2.62816e-13
1.14983e-13
1.60043e-13
1.01835e-13
2.20537e-13
2.74157e-13
-2.17732e-13
-1.73086e-14
1.98991e-13
-6.37328e-14
2.34714e-13
4.49649e-13
6.57991e-13
1.28648e-12
1.01743e-12
8.91957e-13
7.05177e-13
3.55223e-13
7.1331e-13
5.45722e-13
1.24693e-13
-1.14182e-13
-4.02987e-13
2.0854e-13
-1.81231e-13
2.9097e-13
6.0868e-14
-5.3457e-13
-4.18155e-13
-1.53358e-13
6.22322e-14
3.43012e-13
8.17942e-13
6.99065e-13
1.23382e-13
3.29209e-13
6.63715e-13
1.27742e-12
7.32128e-13
7.97973e-13
7.00162e-13
9.4951e-13
6.15217e-13
6.72061e-13
1.04122e-13
-2.73211e-13
-6.61336e-13
-7.07052e-13
-6.9892e-13
-7.90633e-13
-1.47246e-13
-2.82479e-13
1.9883e-13
-1.11736e-13
-2.17755e-14
6.63249e-14
2.83493e-13
4.24131e-13
2.4389e-13
-2.73371e-13
7.89773e-14
3.83377e-13
2.95276e-13
1.05928e-13
-2.0976e-13
-2.01976e-14
3.93087e-13
-1.82382e-13
-7.00593e-14
-1.52207e-13
-4.42804e-13
-2.17892e-13
-3.61472e-13
-1.78503e-13
-8.25045e-13
-1.19081e-12
-1.11658e-12
-7.28827e-13
-2.67593e-13
-6.39415e-13
-2.91106e-13
-1.02897e-12
-1.55937e-12
-1.28507e-12
-1.74276e-12
-2.24916e-12
-2.17235e-12
-1.93931e-12
-1.51762e-12
-1.65711e-12
-2.05956e-12
-1.69382e-12
-1.73185e-12
-1.87931e-12
-2.01339e-12
-2.66108e-12
-2.62485e-12
-2.94353e-12
-3.34983e-12
-3.65211e-12
-3.45543e-12
-3.47527e-12
-2.48745e-12
-1.41804e-12
-1.42498e-12
-1.11039e-12
-1.39876e-12
-2.2552e-12
-2.97817e-12
-2.77076e-12
-2.54277e-12
-1.79156e-12
-2.1252e-12
-2.29532e-12
-2.68645e-12
-2.12399e-12
-2.20338e-12
-1.7561e-12
-1.9975e-12
-1.07575e-12
-8.10567e-13
-1.29951e-12
-6.35516e-13
-4.13032e-13
4.95365e-13
2.8029e-13
4.36007e-13
-2.42288e-13
-4.25257e-13
-9.40639e-13
-6.46217e-13
-2.61548e-13
-2.32932e-13
-3.04093e-13
-3.20183e-13
-4.33214e-13
-1.45817e-12
-1.57468e-12
-1.27938e-12
-2.51697e-13
-1.68418e-13
-6.04046e-13
-5.91393e-13
-1.0922e-12
-1.35671e-12
-7.24554e-13
-7.84126e-13
-1.13086e-12
-8.4779e-13
-3.3735e-13
1.39459e-13
7.2905e-14
4.68221e-13
5.11616e-13
-1.66466e-13
-1.96358e-13
5.11977e-14
5.94347e-13
1.08925e-12
6.24292e-13
1.07394e-12
-3.24858e-13
-8.45843e-13
-4.63034e-13
-5.35472e-13
-7.37259e-13
-1.20918e-12
-1.36007e-12
-7.6988e-13
-3.44332e-13
1.33604e-15
-2.20935e-13
-4.25664e-13
1.54111e-13
1.32263e-13
1.63821e-13
1.98516e-13
-9.43734e-15
-4.16255e-13
-6.27665e-13
-3.14565e-13
-5.85848e-13
-1.37431e-12
-9.61477e-13
-1.14493e-12
-1.4655e-13
-3.32247e-13
1.12294e-13
-3.76438e-13
-4.58285e-13
-3.29305e-13
-4.45721e-13
-1.5711e-13
1.51383e-13
1.63734e-13
-7.5991e-14
-2.29193e-13
-5.08094e-13
-8.48686e-14
-7.62049e-13
-1.29561e-12
-9.75671e-13
-5.53013e-13
-4.22191e-14
4.1331e-13
1.0462e-12
1.23911e-12
1.58496e-12
1.94094e-12
2.13374e-12
1.9421e-12
1.59331e-12
1.16741e-12
1.19588e-12
1.61873e-12
1.22351e-12
1.52211e-12
3.06946e-12
6.15896e-12
1.71485e-11
4.97844e-11
1.40641e-10
3.90481e-10
1.06769e-09
2.88224e-09
7.68295e-09
2.0222e-08
5.25421e-08
1.34736e-07
3.4089e-07
8.50653e-07
2.09285e-06
5.07463e-06
1.2122e-05
2.85142e-05
6.60192e-05
0.000150381
0.000336828
0.000741451
0.00160313
0.00340252
0.00708431
0.0144597
0.0289107
0.0565787
0.108286
0.202498
0.36964
0.657968
1.14088
1.92498
3.15726
5.02894
7.77273
11.6506
16.931
23.857
32.6121
43.2897
55.8754
70.2459
86.1833
103.404
121.598
140.457
159.7
179.079
198.389
217.46
236.163
254.393
272.075
289.149
305.573
321.314
336.351
350.665
364.259
377.089
389.263
400.531
411.372
421.129
430.383
439.21
446.577
454.049
460.834
466.343
471.614
476.713
480.874
484.139
487.166
490.067
492.36
493.858
494.875
495.814
496.745
497.289
497.182
496.791
496.667
496.733
496.577
496.309
495.946
495.584
495.302
495.162
495.107
494.978
494.639
494.196
493.789
493.511
493.345
493.185
492.976
492.387
490.147
483.734
467.652
445.586
421.087
396.923
375.133
356.88
342.493
331.724
324.029
318.768
315.337
313.211
311.995
311.384
311.135
311.05
311.087
311.161
311.244
311.27
311.247
311.116
310.917
310.555
309.857
308.549
305.298
298.256
281.724
245.063
180.996
106.754
47.9986
16.5125
4.66013
1.199
0.300158
0.0747069
0.0185773
0.00461916
0.00114848
0.000285521
7.09718e-05
1.76376e-05
4.38199e-06
1.08831e-06
2.70174e-07
6.70367e-08
1.66233e-08
4.11919e-09
1.01982e-09
2.52297e-10
6.23666e-11
1.53571e-11
3.74351e-12
8.94151e-13
2.46862e-13
1.02719e-13
4.67084e-14
3.24976e-14
4.28186e-14
1.12479e-13
9.09884e-14
1.38908e-13
1.46678e-13
1.21385e-13
1.21635e-13
1.00568e-13
2.471e-14
6.11352e-14
1.11964e-13
6.04077e-14
4.90834e-14
8.93097e-15
-6.59952e-14
-1.35888e-13
-1.55697e-13
-1.90891e-13
-2.76616e-13
-3.31562e-13
-2.66398e-13
-2.6394e-13
-2.38651e-13
-2.43599e-13
-1.85517e-13
-1.5306e-13
-1.00624e-13
-7.65167e-14
-2.55476e-14
6.44301e-14
1.01581e-14
-5.19549e-14
-5.15604e-14
-2.00557e-14
-7.49899e-14
-7.70617e-14
-1.7748e-14
-3.19669e-14
-5.40107e-14
-3.92764e-15
1.13518e-14
7.25667e-14
1.25445e-13
9.80066e-14
9.92377e-14
6.10898e-14
-7.00662e-15
-2.65962e-14
-2.19691e-15
2.00406e-15
1.96844e-14
1.37567e-14
-4.94726e-14
-3.54283e-14
-3.28609e-14
-1.56802e-14
-4.03034e-14
4.82726e-14
-1.22148e-14
-4.31067e-14
-3.49327e-14
4.79395e-14
3.47893e-14
5.81774e-14
4.74319e-14
8.59289e-14
5.81774e-14
6.6286e-14
2.40399e-14
1.02075e-14
1.32348e-13
8.60795e-14
1.02529e-13
1.01302e-13
6.92438e-14
6.30325e-14
1.07903e-13
5.31317e-14
-2.22901e-14
1.37941e-14
1.10715e-13
8.172e-14
8.43647e-14
-1.20443e-14
-2.74862e-14
3.64826e-14
7.42895e-14
1.33944e-13
1.28911e-13
1.09833e-13
2.01374e-13
2.19501e-13
1.28203e-13
1.19297e-13
7.80586e-14
6.96129e-14
-5.47984e-15
-2.68001e-14
6.88773e-14
9.54018e-14
3.90914e-14
8.76637e-14
1.38129e-13
2.39949e-13
2.07891e-13
2.53826e-13
2.0391e-13
2.27306e-13
2.18295e-13
2.47395e-13
2.32425e-13
1.25445e-13
1.2735e-13
2.11497e-13
1.1987e-13
5.34554e-14
-2.67921e-14
-2.90424e-14
2.55213e-14
-1.10665e-14
6.62581e-15
5.58682e-14
7.94188e-14
3.62746e-14
6.71666e-14
4.05442e-15
-2.85683e-14
-5.05587e-14
6.54279e-14
3.21191e-14
8.58341e-14
8.32747e-14
6.87308e-14
5.0315e-14
-3.61999e-15
5.94769e-15
-2.68415e-14
-3.23828e-14
3.21351e-14
-2.19704e-14
-3.35525e-14
1.94884e-14
5.18832e-14
-4.79772e-15
-9.95204e-16
2.17267e-14
-4.69347e-14
6.78287e-14
1.34016e-13
1.28885e-13
9.60839e-14
1.15897e-13
3.19645e-14
6.45128e-15
2.74345e-14
9.81557e-14
8.42779e-14
9.86673e-14
1.37018e-13
9.74442e-14
5.72739e-14
8.77514e-14
1.39224e-13
1.15905e-13
1.17396e-13
7.80706e-14
-3.93137e-14
-2.18493e-14
-9.39148e-14
-2.64965e-14
-7.41851e-15
2.43061e-14
-4.0999e-14
6.11422e-15
-8.61592e-14
-1.31022e-13
-1.69202e-13
-1.32761e-13
-1.12676e-13
-5.99638e-14
-9.83214e-16
2.25794e-14
-3.32648e-14
-1.11327e-13
-9.56495e-14
-2.54341e-15
1.56445e-14
-2.52613e-14
6.12429e-14
3.31543e-14
-3.43254e-14
-9.25785e-14
-3.70673e-14
-1.19765e-13
-1.1333e-13
-1.28167e-13
-1.28094e-13
-1.10917e-13
-1.1439e-13
-9.61571e-14
-3.19883e-14
1.80411e-15
7.43516e-16
-8.47615e-14
-1.22422e-13
-1.05005e-13
-4.93889e-14
2.14517e-15
3.21351e-14
-3.51247e-14
3.35287e-14
-2.45538e-14
-1.08999e-14
-4.45258e-14
4.38349e-15
7.51588e-15
-5.83462e-14
-4.03368e-14
-6.56836e-14
-8.68373e-14
-2.68455e-14
-2.0518e-15
-6.24261e-14
-1.0243e-13
-1.16149e-13
-1.63587e-13
-1.16661e-13
-4.72757e-14
-9.83535e-15
-7.51978e-14
-2.68495e-14
-7.25611e-14
2.57452e-14
1.31437e-13
1.5283e-13
1.64888e-13
1.73464e-13
1.51087e-13
2.01605e-13
1.68397e-13
1.03047e-13
1.52723e-13
9.80132e-14
7.0091e-14
7.59613e-14
6.62805e-14
-1.18952e-14
2.98473e-14
3.81839e-14
5.10505e-14
1.22165e-14
-4.34572e-14
-3.4837e-14
-1.91711e-14
-3.86475e-14
-9.95254e-14
-6.73639e-15
-5.28958e-14
-1.1288e-13
-8.94261e-14
-9.46423e-14
3.16835e-15
4.94449e-14
6.71132e-14
1.82097e-13
1.68276e-13
1.68439e-13
1.94236e-13
6.58781e-14
-4.79616e-16
-3.93177e-14
-1.07214e-14
-1.71074e-15
5.73974e-15
-5.17858e-14
-2.99579e-14
-9.95014e-14
-5.8096e-14
-5.54672e-14
-2.2678e-14
-3.04575e-14
2.91852e-14
9.75016e-14
1.22121e-13
7.94188e-14
-6.18738e-15
-3.66889e-14
4.25434e-14
8.25512e-14
1.4674e-13
6.43633e-14
7.4276e-14
9.76219e-15
-2.38087e-15
5.84436e-14
3.72938e-14
2.49962e-14
-2.49163e-14
2.32575e-14
-3.30409e-14
-3.61773e-14
-2.16294e-14
5.46411e-14
3.71273e-14
3.24801e-14
8.34532e-14
9.88952e-14
1.06496e-13
4.20318e-14
-2.52733e-14
-6.58461e-14
-1.53726e-14
4.6683e-14
1.10973e-13
1.71022e-13
1.94166e-13
2.28256e-13
2.13922e-13
2.08885e-13
2.35706e-13
1.8169e-13
1.93992e-13
1.57311e-13
5.93297e-14
7.18138e-14
1.2106e-13
1.08693e-13
2.48257e-14
4.07753e-14
-2.97874e-14
4.2506e-14
3.15901e-14
1.16714e-14
4.80432e-14
-4.39982e-14
-1.1213e-14
-5.33473e-15
-2.56478e-14
-2.47498e-14
1.34102e-14
-6.83564e-16
-5.89246e-14
-6.63711e-14
-1.22696e-14
3.62946e-14
9.24145e-14
3.69568e-14
6.36518e-14
-2.06142e-14
-5.3907e-14
1.94122e-15
-8.37304e-14
-3.1405e-14
-1.04202e-13
-2.47952e-14
2.15308e-14
1.46032e-13
1.70753e-13
6.38223e-14
3.08745e-14
-9.6361e-14
-7.2985e-14
2.49962e-14
5.51487e-14
8.14986e-14
5.58722e-14
2.87947e-14
1.77203e-14
-2.40796e-14
-2.02782e-15
3.66277e-14
7.90977e-14
6.26486e-14
8.32453e-14
-7.26519e-14
-8.18291e-14
-6.22435e-14
-7.00151e-14
-5.72059e-14
2.49962e-14
6.53905e-14
5.65543e-14
-7.95952e-15
-7.12342e-14
-6.60301e-14
-7.3306e-14
-5.65238e-14
-4.07447e-14
-9.9997e-14
-3.65518e-14
-1.24402e-14
-1.95456e-14
-5.96068e-14
-7.39881e-14
-9.67021e-14
-5.50807e-14
1.18988e-13
1.1675e-13
1.14292e-13
3.00339e-14
-4.53959e-14
-4.45552e-14
-1.01968e-13
-8.99911e-14
-1.85839e-13
-1.6213e-13
-1.10986e-13
-1.6464e-13
-1.12168e-13
-1.5077e-13
-1.23084e-13
-8.88811e-14
-5.63198e-14
-2.82272e-14
-4.33361e-14
)
;

boundaryField
{
    sides
    {
        type            calculated;
        value           nonuniform List<scalar> 2(-5.09317e-14 6.40284e-13);
    }
    empty
    {
        type            empty;
        value           nonuniform 0();
    }
}


// ************************************************************************* //
