-4.995 	348.432 	7.29365e-13 	100000
-4.985 	348.432 	6.71016e-13 	100000
-4.975 	348.432 	8.89825e-13 	100000
-4.965 	348.432 	7.87714e-13 	100000
-4.955 	348.432 	5.83492e-13 	100000
-4.945 	348.432 	8.31476e-13 	100000
-4.935 	348.432 	4.66794e-13 	100000
-4.925 	348.432 	6.27254e-13 	100000
-4.915 	348.432 	4.95968e-13 	100000
-4.905 	348.432 	6.56429e-13 	100000
-4.895 	348.432 	5.3973e-13 	100000
-4.885 	348.432 	6.71016e-13 	100000
-4.875 	348.432 	9.33587e-13 	100000
-4.865 	348.432 	5.25143e-13 	100000
-4.855 	348.432 	6.27254e-13 	100000
-4.845 	348.432 	4.23032e-13 	100000
-4.835 	348.432 	5.98079e-13 	100000
-4.825 	348.432 	4.52206e-13 	100000
-4.815 	348.432 	5.83492e-13 	100000
-4.805 	348.432 	6.56429e-13 	100000
-4.795 	348.432 	4.81381e-13 	100000
-4.785 	348.432 	8.31476e-13 	100000
-4.775 	348.432 	4.08444e-13 	100000
-4.765 	348.432 	7.73127e-13 	100000
-4.755 	348.432 	4.66794e-13 	100000
-4.745 	348.432 	8.89825e-13 	100000
-4.735 	348.432 	6.12667e-13 	100000
-4.725 	348.432 	1.05029e-12 	100000
-4.715 	348.432 	9.19e-13 	100000
-4.705 	348.432 	7.87714e-13 	100000
-4.695 	348.432 	9.48175e-13 	100000
-4.685 	348.432 	7.0019e-13 	100000
-4.675 	348.432 	7.43952e-13 	100000
-4.665 	348.432 	4.81381e-13 	100000
-4.655 	348.432 	6.71016e-13 	100000
-4.645 	348.432 	5.54317e-13 	100000
-4.635 	348.432 	4.81381e-13 	100000
-4.625 	348.432 	5.3973e-13 	100000
-4.615 	348.432 	3.93857e-13 	100000
-4.605 	348.432 	3.93857e-13 	100000
-4.595 	348.432 	5.3973e-13 	100000
-4.585 	348.432 	3.64683e-13 	100000
-4.575 	348.432 	3.20921e-13 	100000
-4.565 	348.432 	4.23032e-13 	100000
-4.555 	348.432 	2.47984e-13 	100000
-4.545 	348.432 	4.37619e-14 	100000
-4.535 	348.432 	4.68945e-26 	100000
-4.525 	348.432 	2.1881e-13 	100000
-4.515 	348.432 	1.02111e-13 	100000
-4.505 	348.432 	3.64683e-13 	100000
-4.495 	348.432 	2.91746e-14 	100000
-4.485 	348.432 	1.89635e-13 	100000
-4.475 	348.432 	5.83492e-14 	100000
-4.465 	348.432 	8.75238e-14 	100000
-4.455 	348.432 	1.75048e-13 	100000
-4.445 	348.432 	2.91746e-13 	100000
-4.435 	348.432 	1.02111e-13 	100000
-4.425 	348.432 	2.91746e-14 	100000
-4.415 	348.432 	5.83492e-14 	100000
-4.405 	348.432 	1.45873e-13 	100000
-4.395 	348.432 	1.02111e-13 	100000
-4.385 	348.432 	1.4235e-25 	100000
-4.375 	348.432 	1.16698e-13 	100000
-4.365 	348.432 	1.45873e-14 	100000
-4.355 	348.432 	4.37619e-14 	100000
-4.345 	348.432 	1.75048e-13 	100000
-4.335 	348.432 	8.75238e-14 	100000
-4.325 	348.432 	4.37619e-14 	100000
-4.315 	348.432 	5.83492e-14 	100000
-4.305 	348.432 	1.45873e-14 	100000
-4.295 	348.432 	1.16698e-13 	100000
-4.285 	348.432 	1.31286e-13 	100000
-4.275 	348.432 	1.16698e-13 	100000
-4.265 	348.432 	2.62571e-13 	100000
-4.255 	348.432 	8.75238e-14 	100000
-4.245 	348.432 	2.91746e-14 	100000
-4.235 	348.432 	5.83492e-14 	100000
-4.225 	348.432 	7.29365e-14 	100000
-4.215 	348.432 	1.6046e-13 	100000
-4.205 	348.432 	1.89635e-13 	100000
-4.195 	348.432 	4.52206e-13 	100000
-4.185 	348.432 	1.02111e-13 	100000
-4.175 	348.432 	3.06333e-13 	100000
-4.165 	348.432 	1.02111e-13 	100000
-4.155 	348.432 	7.29365e-14 	100000
-4.145 	348.432 	2.04222e-13 	100000
-4.135 	348.432 	2.04222e-13 	100000
-4.125 	348.432 	1.45873e-14 	100000
-4.115 	348.432 	1.45873e-14 	100000
-4.105 	348.432 	5.83492e-14 	100000
-4.095 	348.432 	2.91746e-14 	100000
-4.085 	348.432 	1.6046e-13 	100000
-4.075 	348.432 	1.75048e-13 	100000
-4.065 	348.432 	3.06333e-13 	100000
-4.055 	348.432 	5.54317e-13 	100000
-4.045 	348.432 	6.41841e-13 	100000
-4.035 	348.432 	7.29365e-13 	100000
-4.025 	348.432 	5.54317e-13 	100000
-4.015 	348.432 	5.83492e-13 	100000
-4.005 	348.432 	4.37619e-13 	100000
-3.995 	348.432 	3.7927e-13 	100000
-3.985 	348.432 	3.06333e-13 	100000
-3.975 	348.432 	3.93857e-13 	100000
-3.965 	348.432 	3.06333e-13 	100000
-3.955 	348.432 	3.20921e-13 	100000
-3.945 	348.432 	2.91746e-13 	100000
-3.935 	348.432 	4.23032e-13 	100000
-3.925 	348.432 	1.31286e-13 	100000
-3.915 	348.432 	3.35508e-13 	100000
-3.905 	348.432 	2.47984e-13 	100000
-3.895 	348.432 	4.52206e-13 	100000
-3.885 	348.432 	3.93857e-13 	100000
-3.875 	348.432 	5.10556e-13 	100000
-3.865 	348.432 	7.29365e-14 	100000
-3.855 	348.432 	4.08444e-13 	100000
-3.845 	348.432 	3.20921e-13 	100000
-3.835 	348.432 	5.10556e-13 	100000
-3.825 	348.432 	4.08444e-13 	100000
-3.815 	348.432 	2.1881e-13 	100000
-3.805 	348.432 	4.23032e-13 	100000
-3.795 	348.432 	2.91746e-13 	100000
-3.785 	348.432 	6.27254e-13 	100000
-3.775 	348.432 	4.66794e-13 	100000
-3.765 	348.432 	5.83492e-13 	100000
-3.755 	348.432 	4.08444e-13 	100000
-3.745 	348.432 	3.50095e-13 	100000
-3.735 	348.432 	2.77159e-13 	100000
-3.725 	348.432 	1.6046e-13 	100000
-3.715 	348.432 	2.91746e-14 	100000
-3.705 	348.432 	5.83492e-14 	100000
-3.695 	348.432 	2.62571e-13 	100000
-3.685 	348.432 	1.45873e-14 	100000
-3.675 	348.432 	5.83492e-14 	100000
-3.665 	348.432 	1.6046e-13 	100000
-3.655 	348.432 	1.45873e-13 	100000
-3.645 	348.432 	2.91746e-14 	100000
-3.635 	348.432 	2.47984e-13 	100000
-3.625 	348.432 	4.37619e-14 	100000
-3.615 	348.432 	2.62571e-13 	100000
-3.605 	348.432 	1.89635e-13 	100000
-3.595 	348.432 	2.77159e-13 	100000
-3.585 	348.432 	2.47984e-13 	100000
-3.575 	348.432 	1.45873e-13 	100000
-3.565 	348.432 	4.41253e-25 	100000
-3.555 	348.432 	4.37619e-14 	100000
-3.545 	348.432 	1.36494e-25 	100000
-3.535 	348.432 	2.91746e-14 	100000
-3.525 	348.432 	2.04222e-13 	100000
-3.515 	348.432 	2.62571e-13 	100000
-3.505 	348.432 	1.6046e-13 	100000
-3.495 	348.432 	2.77159e-13 	100000
-3.485 	348.432 	4.66794e-13 	100000
-3.475 	348.432 	4.81381e-13 	100000
-3.465 	348.432 	5.25143e-13 	100000
-3.455 	348.432 	4.81381e-13 	100000
-3.445 	348.432 	4.52206e-13 	100000
-3.435 	348.432 	5.3973e-13 	100000
-3.425 	348.432 	6.27254e-13 	100000
-3.415 	348.432 	4.95968e-13 	100000
-3.405 	348.432 	3.64683e-13 	100000
-3.395 	348.432 	1.31286e-13 	100000
-3.385 	348.432 	1.16698e-13 	100000
-3.375 	348.432 	2.91746e-14 	100000
-3.365 	348.432 	1.16698e-13 	100000
-3.355 	348.432 	2.91746e-14 	100000
-3.345 	348.432 	8.75238e-14 	100000
-3.335 	348.432 	1.45873e-13 	100000
-3.325 	348.432 	1.02111e-13 	100000
-3.315 	348.432 	2.62571e-13 	100000
-3.305 	348.432 	3.20921e-13 	100000
-3.295 	348.432 	3.7927e-13 	100000
-3.285 	348.432 	1.75048e-13 	100000
-3.275 	348.432 	1.45873e-14 	100000
-3.265 	348.432 	7.29365e-14 	100000
-3.255 	348.432 	1.45873e-14 	100000
-3.245 	348.432 	5.83492e-14 	100000
-3.235 	348.432 	4.37619e-14 	100000
-3.225 	348.432 	4.37619e-14 	100000
-3.215 	348.432 	4.37619e-14 	100000
-3.205 	348.432 	1.02111e-13 	100000
-3.195 	348.432 	2.91746e-14 	100000
-3.185 	348.432 	1.45873e-13 	100000
-3.175 	348.432 	1.02111e-13 	100000
-3.165 	348.432 	5.83492e-14 	100000
-3.155 	348.432 	1.45873e-14 	100000
-3.145 	348.432 	1.45873e-13 	100000
-3.135 	348.432 	1.02111e-13 	100000
-3.125 	348.432 	2.62571e-13 	100000
-3.115 	348.432 	1.31286e-13 	100000
-3.105 	348.432 	2.1881e-13 	100000
-3.095 	348.432 	2.33397e-13 	100000
-3.085 	348.432 	1.75048e-13 	100000
-3.075 	348.432 	1.75048e-13 	100000
-3.065 	348.432 	5.83492e-14 	100000
-3.055 	348.432 	4.37619e-14 	100000
-3.045 	348.432 	1.45873e-14 	100000
-3.035 	348.432 	1.02111e-13 	100000
-3.025 	348.432 	1.31286e-13 	100000
-3.015 	348.432 	1.16698e-13 	100000
-3.005 	348.432 	3.64683e-13 	100000
-2.995 	348.432 	3.64683e-13 	100000
-2.985 	348.432 	4.66794e-13 	100000
-2.975 	348.432 	5.98079e-13 	100000
-2.965 	348.432 	4.23032e-13 	100000
-2.955 	348.432 	5.10556e-13 	100000
-2.945 	348.432 	3.50095e-13 	100000
-2.935 	348.432 	4.08444e-13 	100000
-2.925 	348.432 	3.35508e-13 	100000
-2.915 	348.432 	2.1881e-13 	100000
-2.905 	348.432 	3.64683e-13 	100000
-2.895 	348.432 	2.33397e-13 	100000
-2.885 	348.432 	2.04222e-13 	100000
-2.875 	348.432 	1.75048e-13 	100000
-2.865 	348.432 	2.91746e-14 	100000
-2.855 	348.432 	7.29365e-14 	100000
-2.845 	348.432 	2.91746e-14 	100000
-2.835 	348.432 	1.16698e-13 	100000
-2.825 	348.432 	1.16698e-13 	100000
-2.815 	348.432 	5.83492e-14 	100000
-2.805 	348.432 	1.45873e-14 	100000
-2.795 	348.432 	1.89635e-13 	100000
-2.785 	348.432 	2.1881e-13 	100000
-2.775 	348.432 	1.31286e-13 	100000
-2.765 	348.432 	2.47984e-13 	100000
-2.755 	348.432 	2.91746e-13 	100000
-2.745 	348.432 	3.35508e-13 	100000
-2.735 	348.432 	2.77159e-13 	100000
-2.725 	348.432 	2.91746e-13 	100000
-2.715 	348.432 	4.66794e-13 	100000
-2.705 	348.432 	4.52206e-13 	100000
-2.695 	348.432 	3.06333e-13 	100000
-2.685 	348.432 	1.45873e-13 	100000
-2.675 	348.432 	2.77159e-13 	100000
-2.665 	348.432 	1.36805e-24 	100000
-2.655 	348.432 	1.45873e-14 	100000
-2.645 	348.432 	7.56129e-26 	100000
-2.635 	348.432 	1.75048e-13 	100000
-2.625 	348.432 	1.45873e-14 	100000
-2.615 	348.432 	2.91746e-14 	100000
-2.605 	348.432 	1.89635e-13 	100000
-2.595 	348.432 	1.02111e-13 	100000
-2.585 	348.432 	1.6046e-13 	100000
-2.575 	348.432 	1.45873e-13 	100000
-2.565 	348.432 	1.75048e-13 	100000
-2.555 	348.432 	2.91746e-14 	100000
-2.545 	348.432 	1.02111e-13 	100000
-2.535 	348.432 	1.31286e-13 	100000
-2.525 	348.432 	7.29365e-14 	100000
-2.515 	348.432 	5.83492e-14 	100000
-2.505 	348.432 	1.89635e-13 	100000
-2.495 	348.432 	2.77159e-13 	100000
-2.485 	348.432 	3.20921e-13 	100000
-2.475 	348.432 	3.06333e-13 	100000
-2.465 	348.432 	3.35508e-13 	100000
-2.455 	348.432 	3.06333e-13 	100000
-2.445 	348.432 	2.91746e-13 	100000
-2.435 	348.432 	1.75048e-13 	100000
-2.425 	348.432 	1.75048e-13 	100000
-2.415 	348.432 	2.1881e-13 	100000
-2.405 	348.432 	2.91746e-13 	100000
-2.395 	348.432 	3.7927e-13 	100000
-2.385 	348.432 	4.37619e-13 	100000
-2.375 	348.432 	4.66794e-13 	100000
-2.365 	348.432 	4.08444e-13 	100000
-2.355 	348.432 	4.23032e-13 	100000
-2.345 	348.432 	6.71016e-13 	100000
-2.335 	348.432 	4.95968e-13 	100000
-2.325 	348.432 	8.46063e-13 	100000
-2.315 	348.432 	5.83492e-13 	100000
-2.305 	348.432 	9.48175e-13 	100000
-2.295 	348.432 	7.0019e-13 	100000
-2.285 	348.432 	8.02302e-13 	100000
-2.275 	348.432 	5.98079e-13 	100000
-2.265 	348.432 	7.43952e-13 	100000
-2.255 	348.432 	5.98079e-13 	100000
-2.245 	348.432 	7.5854e-13 	100000
-2.235 	348.432 	6.27254e-13 	100000
-2.225 	348.432 	8.16889e-13 	100000
-2.215 	348.432 	7.5854e-13 	100000
-2.205 	348.432 	7.43952e-13 	100000
-2.195 	348.432 	7.73127e-13 	100000
-2.185 	348.432 	7.0019e-13 	100000
-2.175 	348.432 	7.87714e-13 	100000
-2.165 	348.432 	6.56429e-13 	100000
-2.155 	348.432 	3.7927e-13 	100000
-2.145 	348.432 	4.08444e-13 	100000
-2.135 	348.432 	2.33397e-13 	100000
-2.125 	348.432 	4.66794e-13 	100000
-2.115 	348.432 	2.1881e-13 	100000
-2.105 	348.432 	3.7927e-13 	100000
-2.095 	348.432 	2.47984e-13 	100000
-2.085 	348.432 	4.81381e-13 	100000
-2.075 	348.432 	3.64683e-13 	100000
-2.065 	348.432 	3.64683e-13 	100000
-2.055 	348.432 	2.33397e-13 	100000
-2.045 	348.432 	3.7927e-13 	100000
-2.035 	348.432 	4.66794e-13 	100000
-2.025 	348.432 	4.66794e-13 	100000
-2.015 	348.432 	4.08444e-13 	100000
-2.005 	348.432 	5.98079e-13 	100000
-1.995 	348.432 	3.50095e-13 	100000
-1.985 	348.432 	5.25143e-13 	100000
-1.975 	348.432 	3.7927e-13 	100000
-1.965 	348.432 	4.66794e-13 	100000
-1.955 	348.432 	4.37619e-13 	100000
-1.945 	348.432 	5.68905e-13 	100000
-1.935 	348.432 	5.98079e-13 	100000
-1.925 	348.432 	5.10556e-13 	100000
-1.915 	348.432 	8.02302e-13 	100000
-1.905 	348.432 	4.81381e-13 	100000
-1.895 	348.432 	6.41841e-13 	100000
-1.885 	348.432 	5.25143e-13 	100000
-1.875 	348.432 	6.12667e-13 	100000
-1.865 	348.432 	6.71016e-13 	100000
-1.855 	348.432 	6.85603e-13 	100000
-1.845 	348.432 	1.05029e-12 	100000
-1.835 	348.432 	1.09405e-12 	100000
-1.825 	348.432 	1.12322e-12 	100000
-1.815 	348.432 	8.89825e-13 	100000
-1.805 	348.432 	1.05029e-12 	100000
-1.795 	348.432 	8.46063e-13 	100000
-1.785 	348.432 	1.02111e-12 	100000
-1.775 	348.432 	1.02111e-12 	100000
-1.765 	348.432 	9.48175e-13 	100000
-1.755 	348.432 	8.31476e-13 	100000
-1.745 	348.432 	7.73127e-13 	100000
-1.735 	348.432 	1.05029e-12 	100000
-1.725 	348.432 	7.0019e-13 	100000
-1.715 	348.432 	9.19e-13 	100000
-1.705 	348.432 	6.27254e-13 	100000
-1.695 	348.432 	8.75238e-13 	100000
-1.685 	348.432 	9.91936e-13 	100000
-1.675 	348.432 	6.56429e-13 	100000
-1.665 	348.432 	8.60651e-13 	100000
-1.655 	348.432 	9.62762e-13 	100000
-1.645 	348.432 	1.09405e-12 	100000
-1.635 	348.432 	1.31286e-12 	100000
-1.625 	348.432 	1.25451e-12 	100000
-1.615 	348.432 	1.22533e-12 	100000
-1.605 	348.432 	1.00652e-12 	100000
-1.595 	348.432 	1.25451e-12 	100000
-1.585 	348.432 	1.2691e-12 	100000
-1.575 	348.432 	1.45873e-12 	100000
-1.565 	348.432 	1.2691e-12 	100000
-1.555 	348.432 	1.29827e-12 	100000
-1.545 	348.432 	1.00652e-12 	100000
-1.535 	348.432 	1.1524e-12 	100000
-1.525 	348.432 	8.16889e-13 	100000
-1.515 	348.432 	1.07946e-12 	100000
-1.505 	348.432 	7.43952e-13 	100000
-1.495 	348.432 	1.19616e-12 	100000
-1.485 	348.432 	9.48175e-13 	100000
-1.475 	348.432 	1.06487e-12 	100000
-1.465 	348.432 	8.46063e-13 	100000
-1.455 	348.432 	9.48175e-13 	100000
-1.445 	348.432 	5.83492e-13 	100000
-1.435 	348.432 	7.87714e-13 	100000
-1.425 	348.432 	6.12667e-13 	100000
-1.415 	348.432 	4.81381e-13 	100000
-1.405 	348.432 	4.66794e-13 	100000
-1.395 	348.432 	4.81381e-13 	100000
-1.385 	348.432 	2.91746e-13 	100000
-1.375 	348.432 	1.45873e-13 	100000
-1.365 	348.432 	2.33397e-13 	100000
-1.355 	348.432 	7.29365e-14 	100000
-1.345 	348.432 	1.02111e-13 	100000
-1.335 	348.432 	1.45873e-14 	100000
-1.325 	348.432 	1.31286e-13 	100000
-1.315 	348.432 	3.7927e-13 	100000
-1.305 	348.432 	9.33587e-13 	100000
-1.295 	348.432 	1.91094e-12 	100000
-1.285 	348.432 	4.2449e-12 	100000
-1.275 	348.432 	9.72973e-12 	100000
-1.265 	348.432 	2.19101e-11 	100000
-1.255 	348.432 	5.02678e-11 	100000
-1.245 	348.432 	1.13081e-10 	100000
-1.235 	348.432 	2.52783e-10 	100000
-1.225 	348.432 	5.60546e-10 	100000
-1.215 	348.432 	1.23257e-09 	100000
-1.205 	348.432 	2.68678e-09 	100000
-1.195 	348.432 	5.80281e-09 	100000
-1.185 	348.432 	1.24196e-08 	100000
-1.175 	348.432 	2.63334e-08 	100000
-1.165 	348.432 	5.53093e-08 	100000
-1.155 	348.432 	1.15052e-07 	100000
-1.145 	348.432 	2.3699e-07 	100000
-1.135 	348.432 	4.83304e-07 	100000
-1.125 	348.432 	9.75636e-07 	100000
-1.115 	348.432 	1.94917e-06 	100000
-1.105 	348.432 	3.85316e-06 	100000
-1.095 	348.432 	7.53531e-06 	100000
-1.085 	348.432 	1.4575e-05 	100000
-1.075 	348.432 	2.78767e-05 	100000
-1.065 	348.432 	5.27106e-05 	100000
-1.055 	348.432 	9.85085e-05 	100000
-1.045 	348.432 	0.000181911 	99999.9
-1.035 	348.432 	0.000331847 	99999.9
-1.025 	348.432 	0.000597847 	99999.8
-1.015 	348.432 	0.00106339 	99999.6
-1.005 	348.431 	0.00186686 	99999.3
-0.995 	348.431 	0.00323379 	99998.8
-0.985 	348.43 	0.00552522 	99998
-0.975 	348.429 	0.00930843 	99996.6
-0.965 	348.426 	0.0154574 	99994.4
-0.955 	348.423 	0.0252911 	99990.8
-0.945 	348.417 	0.0407571 	99985.1
-0.935 	348.408 	0.0646657 	99976.3
-0.925 	348.395 	0.100973 	99962.9
-0.915 	348.375 	0.155106 	99943
-0.905 	348.346 	0.234302 	99913.7
-0.895 	348.304 	0.347926 	99871.7
-0.885 	348.245 	0.507715 	99812.6
-0.875 	348.164 	0.727875 	99731.1
-0.865 	348.054 	1.02496 	99621
-0.855 	347.908 	1.41748 	99475.6
-0.845 	347.72 	1.92523 	99287.5
-0.835 	347.481 	2.56833 	99049.6
-0.825 	347.185 	3.36608 	98754.7
-0.815 	346.825 	4.33574 	98397.2
-0.805 	346.396 	5.49143 	97972.1
-0.795 	345.894 	6.84328 	97476.7
-0.785 	345.318 	8.39686 	96909.8
-0.775 	344.667 	10.153 	96272.2
-0.765 	343.943 	12.1084 	95566.4
-0.755 	343.149 	14.2554 	94796.3
-0.745 	342.289 	16.5838 	93967.2
-0.735 	341.368 	19.0811 	93084.9
-0.725 	340.391 	21.7337 	92155.5
-0.715 	339.364 	24.5277 	91185.4
-0.705 	338.292 	27.4494 	90180.5
-0.695 	337.179 	30.4857 	89146.4
-0.685 	336.032 	33.6243 	88088.4
-0.675 	334.854 	36.8543 	87011.2
-0.665 	333.648 	40.1657 	85918.8
-0.655 	332.419 	43.5497 	84814.8
-0.645 	331.168 	46.9984 	83702.6
-0.635 	329.9 	50.5052 	82584.8
-0.625 	328.615 	54.064 	81463.7
-0.615 	327.316 	57.6697 	80341.4
-0.605 	326.004 	61.3178 	79219.7
-0.595 	324.682 	65.0043 	78100
-0.585 	323.35 	68.7257 	76983.6
-0.575 	322.009 	72.4788 	75871.8
-0.565 	320.661 	76.2608 	74765.4
-0.555 	319.307 	80.0693 	73665.4
-0.545 	317.947 	83.9018 	72572.6
-0.535 	316.582 	87.7562 	71487.5
-0.525 	315.212 	91.6305 	70411
-0.515 	313.84 	95.523 	69343.4
-0.505 	312.464 	99.4318 	68285.3
-0.495 	311.086 	103.355 	67237.2
-0.485 	309.706 	107.292 	66199.3
-0.475 	308.325 	111.241 	65172.2
-0.465 	306.944 	115.2 	64156
-0.455 	305.562 	119.168 	63151.1
-0.445 	304.18 	123.144 	62157.7
-0.435 	302.799 	127.127 	61176
-0.425 	301.419 	131.115 	60206.2
-0.415 	300.041 	135.109 	59248.5
-0.405 	298.663 	139.106 	58302.9
-0.395 	297.292 	143.106 	57369.6
-0.385 	295.91 	147.107 	56448.6
-0.375 	294.563 	151.11 	55540.2
-0.365 	293.146 	155.112 	54644.2
-0.355 	291.886 	159.115 	53760.8
-0.345 	290.342 	163.113 	52889.9
-0.335 	289.277 	167.113 	52031.9
-0.325 	287.531 	171.103 	51186.2
-0.315 	286.631 	175.095 	50353.6
-0.305 	284.897 	179.076 	49533.4
-0.295 	283.781 	183.054 	48726.1
-0.285 	282.453 	187.025 	47931.5
-0.275 	280.974 	190.984 	47149.7
-0.265 	279.802 	194.936 	46380.8
-0.255 	278.477 	198.876 	45624.7
-0.245 	277.078 	202.801 	44881.7
-0.235 	275.854 	206.713 	44151.7
-0.225 	274.596 	210.609 	43434.8
-0.215 	273.252 	214.485 	42731.3
-0.205 	271.986 	218.34 	42041.1
-0.195 	270.779 	222.173 	41364.6
-0.185 	269.519 	225.978 	40702
-0.175 	268.255 	229.754 	40053.5
-0.165 	267.045 	233.496 	39419.3
-0.155 	265.87 	237.201 	38800
-0.145 	264.677 	240.862 	38195.9
-0.135 	263.493 	244.475 	37607.6
-0.125 	262.34 	248.034 	37035.5
-0.115 	261.24 	251.532 	36480.5
-0.105 	260.144 	254.96 	35943.2
-0.095 	259.066 	258.309 	35424.5
-0.085 	258.02 	261.57 	34925.5
-0.075 	257.019 	264.732 	34447.1
-0.065 	256.073 	267.783 	33990.5
-0.055 	255.149 	270.708 	33557.2
-0.045 	254.275 	273.496 	33148.4
-0.035 	253.442 	276.131 	32765.4
-0.025 	252.685 	278.598 	32409.7
-0.015 	251.989 	280.884 	32082.6
-0.005 	251.352 	282.976 	31785.3
0.005 	250.78 	284.862 	31518.6
0.015 	250.269 	286.535 	31283.1
0.025 	249.842 	287.991 	31078.8
0.035 	249.479 	289.23 	30905.3
0.045 	249.194 	290.258 	30761.3
0.055 	248.964 	291.088 	30645
0.065 	248.782 	291.735 	30554.1
0.075 	248.649 	292.221 	30485.4
0.085 	248.566 	292.571 	30435.7
0.095 	248.526 	292.81 	30401.5
0.105 	248.496 	292.962 	30379.3
0.115 	248.489 	293.053 	30366
0.125 	248.493 	293.1 	30358.8
0.135 	248.502 	293.118 	30355.7
0.145 	248.522 	293.122 	30355
0.155 	248.537 	293.12 	30355.2
0.165 	248.568 	293.114 	30355.6
0.175 	248.584 	293.104 	30356.7
0.185 	248.612 	293.096 	30357.5
0.195 	248.626 	293.093 	30357.9
0.205 	248.655 	293.092 	30357.9
0.215 	248.672 	293.093 	30357.7
0.225 	248.706 	293.097 	30357.2
0.235 	248.723 	293.104 	30356.2
0.245 	248.756 	293.111 	30355.1
0.255 	248.774 	293.12 	30353.9
0.265 	248.812 	293.128 	30352.6
0.275 	248.834 	293.136 	30351.5
0.285 	248.88 	293.144 	30350.3
0.295 	248.905 	293.151 	30349.3
0.305 	248.958 	293.156 	30348.3
0.315 	248.986 	293.161 	30347.6
0.325 	249.048 	293.165 	30346.9
0.335 	249.081 	293.166 	30346.6
0.345 	249.157 	293.166 	30346.3
0.355 	249.195 	293.165 	30346.3
0.365 	249.289 	293.164 	30346.2
0.375 	249.331 	293.164 	30346.1
0.385 	249.444 	293.164 	30346
0.395 	249.494 	293.163 	30346
0.405 	249.634 	293.163 	30345.8
0.415 	249.692 	293.163 	30345.8
0.425 	249.865 	293.163 	30345.4
0.435 	249.929 	293.163 	30345.1
0.445 	250.125 	293.162 	30345
0.455 	250.194 	293.155 	30345.5
0.465 	250.413 	293.154 	30345.7
0.475 	250.477 	293.167 	30344.7
0.485 	250.779 	293.18 	30345
0.495 	251.12 	293.193 	30348.3
0.505 	252.467 	293.239 	30350
0.515 	255.242 	293.222 	30335.5
0.525 	260.586 	293.144 	30339.3
0.535 	267.976 	293.11 	30341.1
0.545 	277.342 	293.082 	30341.6
0.555 	288.425 	293.061 	30342.2
0.565 	300.812 	293.05 	30343
0.575 	313.951 	293.05 	30343.8
0.585 	327.226 	293.058 	30344.4
0.595 	340.029 	293.072 	30345
0.605 	351.825 	293.089 	30345.3
0.615 	362.233 	293.105 	30345.3
0.625 	371.034 	293.117 	30345.2
0.635 	378.181 	293.126 	30344.9
0.645 	383.767 	293.132 	30344.7
0.655 	387.969 	293.135 	30344.5
0.665 	391.016 	293.138 	30344.1
0.675 	393.144 	293.138 	30343.8
0.685 	394.573 	293.136 	30343.5
0.695 	395.492 	293.135 	30343.2
0.705 	396.055 	293.133 	30343
0.715 	396.377 	293.13 	30342.8
0.725 	396.545 	293.128 	30342.7
0.735 	396.621 	293.125 	30342.5
0.745 	396.646 	293.123 	30342.4
0.755 	396.646 	293.12 	30342
0.765 	396.638 	293.119 	30341.8
0.775 	396.621 	293.119 	30341.3
0.785 	396.607 	293.118 	30340.8
0.795 	396.599 	293.116 	30340.3
0.805 	396.596 	293.115 	30339.8
0.815 	396.596 	293.112 	30339.5
0.825 	396.597 	293.109 	30339.2
0.835 	396.602 	293.106 	30338.9
0.845 	396.606 	293.102 	30338.7
0.855 	396.614 	293.098 	30338.6
0.865 	396.619 	293.095 	30338.4
0.875 	396.627 	293.092 	30338.2
0.885 	396.631 	293.089 	30337.9
0.895 	396.638 	293.087 	30337.7
0.905 	396.641 	293.085 	30337.4
0.915 	396.646 	293.081 	30337.3
0.925 	396.648 	293.077 	30337.2
0.935 	396.653 	293.073 	30337.1
0.945 	396.652 	293.068 	30336.8
0.955 	396.655 	293.064 	30336.1
0.965 	396.65 	293.058 	30335
0.975 	396.65 	293.051 	30333.3
0.985 	396.636 	293.036 	30330.5
0.995 	396.638 	293.01 	30327.6
1.005 	396.603 	292.95 	30322.5
1.015 	396.598 	292.878 	30313.1
1.025 	396.505 	292.699 	30300.7
1.035 	396.469 	292.541 	30274.1
1.045 	396.187 	292.009 	30224.4
1.055 	395.987 	291.195 	30137
1.065 	394.525 	289.054 	29848.6
1.075 	392.683 	284.252 	29360.3
1.085 	386.354 	273.358 	27988.5
1.095 	374.825 	247.849 	25291.7
1.105 	349.08 	197.979 	20632
1.115 	320.651 	126.182 	15879.9
1.125 	297.413 	59.5698 	12496.8
1.135 	284.975 	21.1742 	10829.1
1.145 	280.49 	6.24953 	10231.8
1.155 	279.2 	1.66093 	10059.7
1.165 	278.861 	0.42091 	10015
1.175 	278.775 	0.105024 	10003.7
1.185 	278.753 	0.0260979 	10000.9
1.195 	278.748 	0.00647898 	10000.2
1.205 	278.746 	0.00160812 	10000.1
1.215 	278.746 	0.000399127 	10000
1.225 	278.746 	9.90617e-05 	10000
1.235 	278.746 	2.45869e-05 	10000
1.245 	278.746 	6.10249e-06 	10000
1.255 	278.746 	1.51466e-06 	10000
1.265 	278.746 	3.75952e-07 	10000
1.275 	278.746 	9.33156e-08 	10000
1.285 	278.746 	2.31625e-08 	10000
1.295 	278.746 	5.74934e-09 	10000
1.305 	278.746 	1.42722e-09 	10000
1.315 	278.746 	3.54239e-10 	10000
1.325 	278.746 	8.80345e-11 	10000
1.335 	278.746 	2.1881e-11 	10000
1.345 	278.746 	5.49942e-12 	10000
1.355 	278.746 	1.60461e-12 	10000
1.365 	278.746 	3.93858e-13 	10000
1.375 	278.746 	1.16699e-13 	10000
1.385 	278.746 	1.16699e-13 	10000
1.395 	278.746 	2.77159e-13 	10000
1.405 	278.746 	3.64683e-13 	10000
1.415 	278.746 	3.50096e-13 	10000
1.425 	278.746 	3.7927e-13 	10000
1.435 	278.746 	4.66794e-13 	10000
1.445 	278.746 	4.81382e-13 	10000
1.455 	278.746 	4.08445e-13 	10000
1.465 	278.746 	3.50096e-13 	10000
1.475 	278.746 	5.10556e-13 	10000
1.485 	278.746 	4.95969e-13 	10000
1.495 	278.746 	4.3762e-13 	10000
1.505 	278.746 	1.31286e-13 	10000
1.515 	278.746 	1.45873e-14 	10000
1.525 	278.746 	2.91746e-14 	10000
1.535 	278.746 	2.91746e-14 	10000
1.545 	278.746 	2.04222e-13 	10000
1.555 	278.746 	2.47984e-13 	10000
1.565 	278.746 	2.47984e-13 	10000
1.575 	278.746 	2.1881e-13 	10000
1.585 	278.746 	2.91746e-13 	10000
1.595 	278.746 	3.50096e-13 	10000
1.605 	278.746 	2.04222e-13 	10000
1.615 	278.746 	1.16699e-13 	10000
1.625 	278.746 	1.75048e-13 	10000
1.635 	278.746 	3.06334e-13 	10000
1.645 	278.746 	1.60461e-13 	10000
1.655 	278.746 	3.20921e-13 	10000
1.665 	278.746 	1.45873e-13 	10000
1.675 	278.746 	1.60461e-13 	10000
1.685 	278.746 	1.45873e-14 	10000
1.695 	278.746 	8.8923e-26 	10000
1.705 	278.746 	1.45873e-14 	10000
1.715 	278.746 	1.02111e-13 	10000
1.725 	278.746 	1.45873e-14 	10000
1.735 	278.746 	1.31286e-13 	10000
1.745 	278.746 	4.3762e-14 	10000
1.755 	278.746 	3.20921e-13 	10000
1.765 	278.746 	8.75239e-14 	10000
1.775 	278.746 	1.45873e-13 	10000
1.785 	278.746 	2.62572e-13 	10000
1.795 	278.746 	3.93858e-13 	10000
1.805 	278.746 	4.23032e-13 	10000
1.815 	278.746 	3.20921e-13 	10000
1.825 	278.746 	4.81382e-13 	10000
1.835 	278.746 	2.77159e-13 	10000
1.845 	278.746 	5.25144e-13 	10000
1.855 	278.746 	4.08445e-13 	10000
1.865 	278.746 	7.29366e-13 	10000
1.875 	278.746 	4.81382e-13 	10000
1.885 	278.746 	7.87715e-13 	10000
1.895 	278.746 	5.9808e-13 	10000
1.905 	278.746 	7.58541e-13 	10000
1.915 	278.746 	8.60652e-13 	10000
1.925 	278.746 	7.58541e-13 	10000
1.935 	278.746 	9.62763e-13 	10000
1.945 	278.746 	7.73128e-13 	10000
1.955 	278.746 	7.14779e-13 	10000
1.965 	278.746 	6.56429e-13 	10000
1.975 	278.746 	5.83493e-13 	10000
1.985 	278.746 	6.12667e-13 	10000
1.995 	278.746 	7.00191e-13 	10000
2.005 	278.746 	7.29366e-13 	10000
2.015 	278.746 	7.00191e-13 	10000
2.025 	278.746 	6.27255e-13 	10000
2.035 	278.746 	5.9808e-13 	10000
2.045 	278.746 	5.68906e-13 	10000
2.055 	278.746 	4.66794e-13 	10000
2.065 	278.746 	3.64683e-13 	10000
2.075 	278.746 	3.20921e-13 	10000
2.085 	278.746 	3.35508e-13 	10000
2.095 	278.746 	4.52207e-13 	10000
2.105 	278.746 	4.23032e-13 	10000
2.115 	278.746 	5.10556e-13 	10000
2.125 	278.746 	4.3762e-13 	10000
2.135 	278.746 	4.08445e-13 	10000
2.145 	278.746 	3.64683e-13 	10000
2.155 	278.746 	5.25144e-13 	10000
2.165 	278.746 	5.83493e-13 	10000
2.175 	278.746 	6.56429e-13 	10000
2.185 	278.746 	7.43953e-13 	10000
2.195 	278.746 	7.58541e-13 	10000
2.205 	278.746 	8.31477e-13 	10000
2.215 	278.746 	9.19001e-13 	10000
2.225 	278.746 	8.46065e-13 	10000
2.235 	278.746 	8.31477e-13 	10000
2.245 	278.746 	8.46065e-13 	10000
2.255 	278.746 	6.27255e-13 	10000
2.265 	278.746 	5.68906e-13 	10000
2.275 	278.746 	3.93858e-13 	10000
2.285 	278.746 	3.35508e-13 	10000
2.295 	278.746 	4.23032e-13 	10000
2.305 	278.746 	3.35508e-13 	10000
2.315 	278.746 	5.39731e-13 	10000
2.325 	278.746 	4.66794e-13 	10000
2.335 	278.746 	4.95969e-13 	10000
2.345 	278.746 	6.41842e-13 	10000
2.355 	278.746 	3.93858e-13 	10000
2.365 	278.746 	4.95969e-13 	10000
2.375 	278.746 	3.06334e-13 	10000
2.385 	278.746 	3.06334e-13 	10000
2.395 	278.746 	2.33397e-13 	10000
2.405 	278.746 	3.7927e-13 	10000
2.415 	278.746 	4.08445e-13 	10000
2.425 	278.746 	4.23032e-13 	10000
2.435 	278.746 	2.62572e-13 	10000
2.445 	278.746 	5.25144e-13 	10000
2.455 	278.746 	2.91746e-13 	10000
2.465 	278.746 	4.23032e-13 	10000
2.475 	278.746 	2.62572e-13 	10000
2.485 	278.746 	1.60461e-13 	10000
2.495 	278.746 	3.7927e-13 	10000
2.505 	278.746 	3.20921e-13 	10000
2.515 	278.746 	2.47984e-13 	10000
2.525 	278.746 	7.29366e-14 	10000
2.535 	278.746 	4.3762e-14 	10000
2.545 	278.746 	1.02111e-13 	10000
2.555 	278.746 	8.75239e-14 	10000
2.565 	278.746 	2.77159e-13 	10000
2.575 	278.746 	1.02111e-13 	10000
2.585 	278.746 	1.02111e-13 	10000
2.595 	278.746 	7.47329e-25 	10000
2.605 	278.746 	1.31286e-13 	10000
2.615 	278.746 	2.91746e-13 	10000
2.625 	278.746 	4.08445e-13 	10000
2.635 	278.746 	1.31286e-13 	10000
2.645 	278.746 	1.75048e-13 	10000
2.655 	278.746 	5.83493e-14 	10000
2.665 	278.746 	1.45873e-13 	10000
2.675 	278.746 	2.77159e-13 	10000
2.685 	278.746 	1.45873e-14 	10000
2.695 	278.746 	2.1881e-13 	10000
2.705 	278.746 	2.91746e-14 	10000
2.715 	278.746 	1.75048e-13 	10000
2.725 	278.746 	4.3762e-14 	10000
2.735 	278.746 	5.25144e-13 	10000
2.745 	278.746 	2.33397e-13 	10000
2.755 	278.746 	2.77159e-13 	10000
2.765 	278.746 	3.35508e-13 	10000
2.775 	278.746 	3.7927e-13 	10000
2.785 	278.746 	4.08445e-13 	10000
2.795 	278.746 	2.91746e-13 	10000
2.805 	278.746 	3.64683e-13 	10000
2.815 	278.746 	2.04222e-13 	10000
2.825 	278.746 	3.20921e-13 	10000
2.835 	278.746 	1.60461e-13 	10000
2.845 	278.746 	1.45873e-13 	10000
2.855 	278.746 	2.04222e-13 	10000
2.865 	278.746 	1.60461e-13 	10000
2.875 	278.746 	4.08445e-13 	10000
2.885 	278.746 	1.60461e-13 	10000
2.895 	278.746 	2.91746e-13 	10000
2.905 	278.746 	2.91746e-14 	10000
2.915 	278.746 	1.16699e-13 	10000
2.925 	278.746 	4.3762e-14 	10000
2.935 	278.746 	7.29366e-14 	10000
2.945 	278.746 	7.29366e-14 	10000
2.955 	278.746 	4.3762e-14 	10000
2.965 	278.746 	2.77159e-13 	10000
2.975 	278.746 	1.45873e-14 	10000
2.985 	278.746 	1.45873e-13 	10000
2.995 	278.746 	2.91746e-14 	10000
3.005 	278.746 	1.45873e-14 	10000
3.015 	278.746 	4.3762e-14 	10000
3.025 	278.746 	1.02111e-13 	10000
3.035 	278.746 	4.3762e-14 	10000
3.045 	278.746 	7.29366e-14 	10000
3.055 	278.746 	1.89635e-13 	10000
3.065 	278.746 	3.64683e-13 	10000
3.075 	278.746 	3.50096e-13 	10000
3.085 	278.746 	3.7927e-13 	10000
3.095 	278.746 	3.64683e-13 	10000
3.105 	278.746 	3.93858e-13 	10000
3.115 	278.746 	3.06334e-13 	10000
3.125 	278.746 	1.45873e-13 	10000
3.135 	278.746 	4.3762e-14 	10000
3.145 	278.746 	1.60461e-13 	10000
3.155 	278.746 	3.64683e-13 	10000
3.165 	278.746 	3.7927e-13 	10000
3.175 	278.746 	5.10556e-13 	10000
3.185 	278.746 	4.08445e-13 	10000
3.195 	278.746 	4.23032e-13 	10000
3.205 	278.746 	4.08445e-13 	10000
3.215 	278.746 	5.39731e-13 	10000
3.225 	278.746 	3.93858e-13 	10000
3.235 	278.746 	6.56429e-13 	10000
3.245 	278.746 	5.68906e-13 	10000
3.255 	278.746 	5.39731e-13 	10000
3.265 	278.746 	3.20921e-13 	10000
3.275 	278.746 	3.20921e-13 	10000
3.285 	278.746 	2.1881e-13 	10000
3.295 	278.746 	1.75048e-13 	10000
3.305 	278.746 	1.55557e-24 	10000
3.315 	278.746 	1.60461e-13 	10000
3.325 	278.746 	1.45873e-14 	10000
3.335 	278.746 	4.3762e-14 	10000
3.345 	278.746 	1.31286e-13 	10000
3.355 	278.746 	5.83493e-14 	10000
3.365 	278.746 	1.45873e-14 	10000
3.375 	278.746 	4.3762e-14 	10000
3.385 	278.746 	2.91746e-14 	10000
3.395 	278.746 	2.62572e-13 	10000
3.405 	278.746 	3.06334e-13 	10000
3.415 	278.746 	3.20921e-13 	10000
3.425 	278.746 	5.54318e-13 	10000
3.435 	278.746 	3.35508e-13 	10000
3.445 	278.746 	4.08445e-13 	10000
3.455 	278.746 	2.62572e-13 	10000
3.465 	278.746 	4.52207e-13 	10000