/*--------------------------------*- C++ -*----------------------------------*\
| =========                 |                                                 |
| \\      /  F ield         | OpenFOAM: The Open Source CFD Toolbox           |
|  \\    /   O peration     | Version:  dev                                   |
|   \\  /    A nd           | Web:      www.OpenFOAM.org                      |
|    \\/     M anipulation  |                                                 |
\*---------------------------------------------------------------------------*/
FoamFile
{
    version     2.0;
    format      ascii;
    class       surfaceScalarField;
    location    "0.003";
    object      phi;
}
// * * * * * * * * * * * * * * * * * * * * * * * * * * * * * * * * * * * * * //

dimensions      [1 0 -1 0 0 0 0];

internalField   nonuniform List<scalar> 
999
(
-2.4049e-12
-2.03414e-12
-1.52669e-12
-1.60899e-12
-1.73677e-12
-1.25141e-12
-1.21829e-12
-1.70882e-12
-1.61719e-12
-2.4242e-12
-2.74584e-12
-3.03752e-12
-3.00899e-12
-2.68599e-12
-3.29662e-12
-4.56386e-12
-4.38435e-12
-4.84851e-12
-4.50705e-12
-4.11948e-12
-5.08837e-12
-4.64176e-12
-3.6025e-12
-3.71734e-12
-3.66344e-12
-3.66344e-12
-3.85927e-12
-4.53151e-12
-4.34664e-12
-4.20676e-12
-3.69333e-12
-3.87518e-12
-4.50408e-12
-3.99489e-12
-4.27108e-12
-4.08245e-12
-5.09181e-12
-4.39792e-12
-4.50817e-12
-4.34108e-12
-4.1791e-12
-4.10486e-12
-4.1707e-12
-4.93301e-12
-4.02576e-12
-4.12292e-12
-3.5144e-12
-3.80293e-12
-3.59867e-12
-3.16609e-12
-3.05561e-12
-3.36351e-12
-3.85664e-12
-3.30671e-12
-3.94655e-12
-3.60937e-12
-4.06886e-12
-3.47416e-12
-3.48828e-12
-4.26093e-12
-4.68764e-12
-5.01599e-12
-4.85408e-12
-4.12886e-12
-4.87395e-12
-5.18373e-12
-5.34079e-12
-5.16044e-12
-4.90072e-12
-4.60991e-12
-4.57783e-12
-3.84112e-12
-3.16105e-12
-3.49738e-12
-2.89406e-12
-3.41426e-12
-3.2351e-12
-3.47796e-12
-3.21088e-12
-3.2225e-12
-3.28433e-12
-2.1549e-12
-2.24644e-12
-2.36422e-12
-2.05754e-12
-1.54122e-12
-1.97812e-12
-1.83099e-12
-2.47389e-12
-2.29178e-12
-2.01434e-12
-2.67818e-12
-2.91697e-12
-3.2932e-12
-3.37355e-12
-3.70404e-12
-4.0344e-12
-3.66824e-12
-2.9784e-12
-2.5463e-12
-2.7952e-12
-2.35317e-12
-2.27115e-12
-2.31056e-12
-1.76704e-12
-1.6753e-12
-1.44635e-12
-2.00419e-12
-2.32486e-12
-1.95745e-12
-1.57955e-12
-1.77655e-12
-1.78509e-12
-1.8343e-12
-2.56127e-12
-2.54429e-12
-2.28861e-12
-2.34065e-12
-3.44313e-12
-3.13694e-12
-3.18224e-12
-3.5305e-12
-3.16085e-12
-2.35236e-12
-1.90424e-12
-1.45714e-12
-1.19469e-12
-1.72618e-12
-2.50408e-12
-2.14132e-12
-2.37662e-12
-2.23419e-12
-2.23263e-12
-1.68206e-12
-1.19486e-12
-1.5836e-12
-8.87909e-13
-9.22763e-13
-8.01439e-13
-1.02176e-12
-8.45348e-13
-5.53883e-13
-7.7897e-13
-6.45862e-13
-4.34083e-13
-1.4464e-12
-1.322e-12
-2.31481e-12
-2.47244e-12
-2.64551e-12
-1.97035e-12
-2.51888e-12
-2.02741e-12
-2.20881e-12
-2.48332e-12
-1.80775e-12
-1.92438e-12
-2.07392e-12
-1.75075e-12
-1.50249e-12
-1.48787e-12
-1.19775e-12
1.34831e-13
3.1027e-13
4.64269e-13
9.57522e-13
2.39624e-13
6.81048e-13
9.28779e-13
8.62012e-13
7.39698e-13
1.12064e-12
1.16095e-12
1.30604e-12
1.16923e-12
1.28026e-12
1.24762e-12
1.34823e-12
1.1023e-12
1.35052e-12
1.52673e-12
1.48369e-12
1.01061e-12
3.71046e-13
9.90264e-13
1.66278e-12
9.15898e-13
3.26413e-13
2.47809e-13
-2.8074e-13
-2.9683e-13
-1.96077e-13
-1.13099e-13
-1.04053e-12
-9.09387e-13
-1.02602e-12
-7.52005e-13
-1.58584e-12
-1.64405e-12
-1.852e-12
-1.79172e-12
-2.25871e-12
-2.52863e-12
-2.58076e-12
-2.11241e-12
-2.53992e-12
-2.45504e-12
-2.26507e-12
-2.55905e-12
-1.83798e-12
-1.79427e-12
-1.59113e-12
-1.65769e-12
-1.65838e-12
-2.2019e-12
-9.69949e-13
-6.94574e-13
-6.66861e-13
-1.31029e-12
-1.10644e-12
-6.52121e-13
-4.36317e-13
-1.11096e-12
-1.1683e-12
-1.7779e-12
-1.86559e-12
-2.46957e-12
-2.776e-12
-2.16503e-12
-2.68024e-12
-2.50311e-12
-2.90606e-12
-2.28695e-12
-2.53695e-12
-2.59899e-12
-2.39199e-12
-2.07726e-12
-1.14579e-12
-1.25271e-12
-9.3222e-13
-7.85096e-13
-8.93311e-13
-9.22723e-13
-5.03846e-14
4.11398e-13
7.10393e-13
2.50417e-13
-3.03719e-13
3.01429e-13
2.92374e-13
3.42236e-13
7.16083e-14
-2.88271e-13
1.11973e-13
-1.70064e-13
4.07478e-13
3.40872e-13
8.10063e-13
6.34076e-13
-2.48026e-13
-4.84012e-13
-7.86834e-13
-1.26127e-12
-1.25854e-12
-2.04894e-12
-2.32975e-12
-2.74712e-12
-1.96494e-12
-2.87575e-12
-3.68337e-12
-4.26103e-12
-4.41372e-12
-4.3111e-12
-3.83688e-12
-4.44971e-12
-4.58462e-12
-4.88045e-12
-4.5426e-12
-4.63492e-12
-4.24662e-12
-3.69734e-12
-3.82557e-12
-4.52178e-12
-4.79648e-12
-4.60487e-12
-4.3381e-12
-3.95488e-12
-3.32349e-12
-3.58234e-12
-3.68222e-12
-3.51011e-12
-4.00468e-12
-3.9678e-12
-4.09938e-12
-4.20177e-12
-4.66651e-12
-4.16305e-12
-4.47875e-12
-4.32566e-12
-4.55031e-12
-5.17689e-12
-5.59145e-12
-5.62307e-12
-5.51685e-12
-5.61603e-12
-5.93005e-12
-5.56701e-12
-5.12687e-12
-5.00747e-12
-5.44054e-12
-5.33138e-12
-5.63742e-12
-5.81492e-12
-5.38449e-12
-5.35623e-12
-5.25979e-12
-4.96158e-12
-4.63718e-12
-5.16623e-12
-4.68742e-12
-4.89209e-12
-4.09443e-12
-3.04059e-12
2.42403e-12
1.04523e-11
2.70058e-11
6.07805e-11
1.30316e-10
2.70155e-10
5.52277e-10
1.11776e-09
2.23905e-09
4.44956e-09
8.77704e-09
1.71853e-08
3.34007e-08
6.44327e-08
1.23369e-07
2.34426e-07
4.42041e-07
8.27047e-07
1.53519e-06
2.82686e-06
5.16307e-06
9.35234e-06
1.67991e-05
2.99191e-05
5.28264e-05
9.24554e-05
0.000160373
0.000275666
0.000469485
0.000792099
0.00132369
0.00219062
0.00358962
0.00582304
0.00934956
0.0148555
0.0233537
0.0363162
0.0558513
0.0849293
0.127666
0.189666
0.278421
0.403747
0.578251
0.817768
1.14173
1.57338
2.13982
2.87173
3.80275
4.96857
6.4056
8.14943
10.2331
12.6854
15.5294
18.7811
22.4488
26.5328
31.0256
35.9126
41.1729
46.781
52.7075
58.9211
65.3896
72.0808
78.9633
86.0074
93.1852
100.471
107.841
115.274
122.751
130.255
137.77
145.284
152.785
160.261
167.705
175.107
182.462
189.762
197.002
204.178
211.285
218.319
225.277
232.155
238.952
245.665
252.291
258.828
265.276
271.632
277.896
284.065
290.14
296.119
302.001
307.787
313.476
319.067
324.56
329.955
335.252
340.452
345.553
350.558
355.464
360.274
364.988
369.605
374.127
378.553
382.885
387.123
391.267
395.32
399.275
403.152
406.914
410.627
414.188
417.742
421.12
424.481
427.738
430.848
434.014
436.918
439.883
442.717
445.416
448.13
450.709
453.188
455.647
458.001
460.253
462.466
464.603
466.638
468.613
470.53
472.363
474.115
475.808
477.44
478.99
480.471
481.891
483.248
484.536
485.753
486.913
488.01
489.046
490.015
490.925
491.778
492.573
493.31
493.987
494.611
495.181
495.7
496.167
496.582
496.951
497.274
497.555
497.793
497.994
498.157
498.289
498.393
498.471
498.526
498.56
498.58
498.588
498.586
498.578
498.564
498.547
498.529
498.511
498.492
498.475
498.457
498.44
498.424
498.408
498.392
498.377
498.362
498.346
498.329
498.312
498.294
498.276
498.257
498.237
498.216
498.195
498.173
498.15
498.126
498.101
498.076
498.049
498.021
497.993
497.963
497.932
497.899
497.866
497.83
497.794
497.755
497.716
497.673
497.63
497.583
497.535
497.484
497.431
497.373
497.314
497.249
497.182
497.109
497.033
496.95
496.863
496.767
496.666
496.553
496.434
496.3
496.16
496
495.833
495.642
495.443
495.229
495.019
494.794
494.557
494.316
493.92
493.021
490.745
486.377
479.906
471.287
460.663
448.351
434.814
420.591
406.242
392.281
379.135
367.125
356.451
347.203
339.382
332.915
327.685
323.54
320.323
317.877
316.055
314.726
313.776
313.113
312.66
312.358
312.161
312.036
311.959
311.911
311.883
311.867
311.856
311.849
311.843
311.837
311.831
311.826
311.82
311.814
311.809
311.804
311.799
311.794
311.789
311.785
311.781
311.778
311.774
311.771
311.767
311.764
311.76
311.757
311.753
311.75
311.747
311.744
311.741
311.738
311.735
311.731
311.727
311.724
311.72
311.717
311.714
311.71
311.705
311.699
311.693
311.686
311.675
311.664
311.647
311.624
311.586
311.535
311.42
311.283
311
310.525
309.6
307.263
302.412
290.601
263.131
208.405
135.382
67.7558
25.7059
7.72089
2.03213
0.510882
0.127039
0.03153
0.00782383
0.00194143
0.000481759
0.000119548
2.96659e-05
7.3616e-06
1.82679e-06
4.53322e-07
1.12493e-07
2.79157e-08
6.92751e-09
1.71927e-09
4.26718e-10
1.05992e-10
2.64392e-11
6.68255e-12
1.75258e-12
6.24952e-13
3.45162e-13
2.15894e-13
1.76959e-13
9.94617e-14
1.29789e-13
5.69916e-14
1.44991e-13
1.58357e-13
3.14343e-13
2.89859e-13
3.30796e-13
3.56627e-13
3.82814e-13
4.09672e-13
4.37548e-13
4.51593e-13
5.35734e-13
5.01668e-13
4.74648e-13
5.27855e-13
5.12849e-13
4.74132e-13
4.41267e-13
4.79086e-13
5.01792e-13
4.76324e-13
4.80593e-13
5.19472e-13
5.55008e-13
4.5822e-13
5.52769e-13
4.93747e-13
4.96588e-13
4.99455e-13
4.8541e-13
4.37786e-13
4.1783e-13
5.59159e-13
4.91517e-13
4.89961e-13
4.90423e-13
4.40722e-13
4.74961e-13
3.80879e-13
3.70138e-13
4.1124e-13
3.43907e-13
3.90219e-13
3.37353e-13
2.48111e-13
1.52986e-13
1.94847e-13
2.27799e-13
2.32833e-13
2.57452e-13
1.84187e-13
1.151e-13
1.38151e-13
1.15096e-13
8.24649e-14
7.03338e-14
2.45769e-14
5.69796e-14
1.01022e-13
2.24455e-13
3.45182e-13
3.40507e-13
4.09331e-13
3.31686e-13
4.21133e-13
4.21432e-13
4.18171e-13
3.71621e-13
3.7444e-13
3.00611e-13
3.59359e-13
2.96901e-13
2.38486e-13
3.23113e-13
2.57433e-13
2.48085e-13
1.96353e-13
2.38091e-13
2.14545e-13
1.17969e-13
1.1443e-13
6.82192e-14
1.05424e-13
-1.46945e-14
-5.47556e-14
-1.41829e-14
2.96808e-14
9.69366e-14
5.93456e-14
3.15901e-14
1.0455e-13
1.47902e-13
2.27927e-13
2.76146e-13
3.39092e-13
3.01606e-13
3.47375e-13
2.63109e-13
2.23539e-13
1.34731e-13
9.11037e-14
9.16073e-14
1.4581e-13
1.05594e-13
7.87367e-14
9.81637e-14
2.57038e-14
7.07492e-14
2.62194e-14
1.09595e-13
2.60488e-14
-3.051e-15
1.09893e-14
6.71666e-14
1.58538e-13
1.67305e-13
1.22937e-13
1.78217e-13
1.31847e-13
2.14491e-13
1.02474e-13
1.32356e-14
-4.43393e-14
-5.06121e-14
6.57195e-14
4.39077e-14
-6.2248e-15
-2.47498e-14
-7.48328e-14
-1.31193e-13
-1.12448e-13
-1.88048e-13
-2.24168e-13
-3.17181e-13
-3.1799e-13
-3.85006e-13
-3.33842e-13
-3.47906e-13
-3.23283e-13
-2.7502e-13
-3.02609e-13
-2.91896e-13
-2.18928e-13
-2.22354e-13
-2.59733e-13
-2.54756e-13
-2.73529e-13
-2.34443e-13
-1.19285e-13
-9.66687e-14
-1.04684e-13
1.18714e-14
1.13988e-13
1.46599e-13
2.47411e-13
3.11189e-13
2.86404e-13
2.52778e-13
1.73119e-13
1.48597e-13
1.6165e-13
1.3894e-13
6.17839e-14
8.73901e-15
7.92443e-14
2.18893e-14
6.2125e-14
6.05608e-14
5.89806e-14
1.98595e-13
1.82479e-13
2.02832e-13
2.32655e-13
2.33123e-13
2.17174e-13
1.615e-13
1.88109e-13
2.53622e-13
3.19135e-13
3.13931e-13
3.57276e-13
2.64917e-13
3.63699e-13
3.88289e-13
2.83918e-13
2.36299e-13
1.62283e-13
1.36165e-13
8.72598e-14
4.75356e-14
3.17566e-14
-2.3023e-14
9.24065e-14
5.46371e-14
2.3424e-14
-9.01083e-14
-5.3358e-14
1.42428e-14
4.49148e-14
6.52279e-14
-1.92085e-14
-5.80426e-14
2.10376e-15
4.83763e-14
8.37252e-15
4.73611e-14
1.05834e-13
1.73935e-13
1.02133e-13
1.02133e-13
5.60427e-14
-5.67579e-15
-1.70993e-14
7.89726e-14
1.50035e-13
1.36433e-13
1.7213e-13
1.57579e-13
1.80037e-13
8.11575e-14
5.15621e-14
9.70991e-14
3.67862e-14
3.78428e-14
1.26094e-13
4.52893e-14
5.48076e-14
5.0656e-14
1.02698e-13
8.02347e-15
-7.50113e-14
-1.08479e-13
-1.47313e-13
-1.00208e-13
-5.45477e-14
-1.22442e-14
-4.34652e-14
-6.9706e-14
-1.22178e-13
-1.02101e-13
-1.71494e-13
-6.08005e-14
2.41436e-14
7.07572e-14
2.89653e-14
-1.02462e-15
-1.22776e-14
6.12389e-14
1.55007e-13
1.34767e-13
2.29047e-13
2.12106e-13
1.32634e-13
8.88279e-14
1.94844e-13
1.30554e-13
1.87909e-13
1.79236e-13
9.07292e-14
1.51774e-13
2.05078e-13
1.97253e-13
6.10804e-14
-2.02277e-14
-2.23529e-14
-7.06946e-15
2.35986e-14
2.32575e-14
6.12509e-14
2.3087e-14
-7.57269e-14
-3.20257e-14
-7.05841e-14
-4.87028e-14
9.04665e-15
8.70559e-15
3.47185e-14
-5.25213e-14
-4.35066e-14
-3.68928e-14
-4.14269e-14
-6.72772e-14
-1.22061e-13
-1.60761e-14
5.89552e-14
7.3158e-14
9.9857e-14
5.23733e-14
8.54876e-14
2.38849e-13
2.7709e-13
2.05564e-13
2.71422e-13
3.04882e-13
4.08706e-13
3.44362e-13
3.02598e-13
3.00673e-13
3.59108e-13
3.80425e-13
3.40223e-13
3.04517e-13
3.20966e-13
)
;

boundaryField
{
    sides
    {
        type            calculated;
        value           nonuniform List<scalar> 2(2.98314e-13 2.85218e-12);
    }
    empty
    {
        type            empty;
        value           nonuniform 0();
    }
}


// ************************************************************************* //
